<?xml version="1.0" encoding="UTF-8"?>

<!-- generated on 2026-05-31 10:44:34 by Eclipse SUMO GUI Version 1.21.0
<sumoConfiguration xmlns:xsi="http://www.w3.org/2001/XMLSchema-instance" xsi:noNamespaceSchemaLocation="http://sumo.dlr.de/xsd/sumoConfiguration.xsd">

    <input>
        <net-file value="C:\Users\xyluo25\anaconda3_workspace\001_GitHub\utdf2gmns\datasets\data_tempe\utdf_to_sumo\utdf_to_sumo.net.xml"/>
        <route-files value="C:\Users\xyluo25\anaconda3_workspace\001_GitHub\utdf2gmns\datasets\data_tempe\utdf_to_sumo\utdf_to_sumo.rou.xml"/>
        <additional-files value="C:\Users\xyluo25\anaconda3_workspace\001_GitHub\utdf2gmns\datasets\data_tempe\utdf_to_sumo\utdf_to_sumo.add.xml"/>
    </input>

    <output>
        <edgedata-output value="C:\Users\xyluo25\anaconda3_workspace\001_GitHub\utdf2gmns\datasets\data_tempe\utdf_to_sumo\EdgeData.xml"/>
    </output>

    <time>
        <begin value="27000.0"/>
        <end value="34200.0"/>
        <step-length value="1"/>
    </time>

</sumoConfiguration>
-->

<detector xmlns:xsi="http://www.w3.org/2001/XMLSchema-instance" xsi:noNamespaceSchemaLocation="http://sumo.dlr.de/xsd/det_e1_file.xsd">
    <interval begin="27000.00" end="27300.00" id="10_0_D0.0" nVehContrib="1" flow="12.00" occupancy="0.13" speed="12.74" harmonicMeanSpeed="12.74" length="5.00" nVehEntered="1"/>
    <interval begin="27000.00" end="27300.00" id="10_0_D0.1" nVehContrib="12" flow="144.00" occupancy="1.91" speed="11.57" harmonicMeanSpeed="10.49" length="5.00" nVehEntered="12"/>
    <interval begin="27000.00" end="27300.00" id="10_0_D0.2" nVehContrib="7" flow="84.00" occupancy="1.39" speed="9.81" harmonicMeanSpeed="8.38" length="5.00" nVehEntered="7"/>
    <interval begin="27000.00" end="27300.00" id="10_0_D0.3" nVehContrib="5" flow="60.00" occupancy="0.95" speed="10.25" harmonicMeanSpeed="8.79" length="5.00" nVehEntered="5"/>
    <interval begin="27000.00" end="27300.00" id="10_0_D0.4" nVehContrib="4" flow="48.00" occupancy="0.66" speed="10.30" harmonicMeanSpeed="10.17" length="5.00" nVehEntered="4"/>
    <interval begin="27000.00" end="27300.00" id="10_0_D1.0" nVehContrib="12" flow="144.00" occupancy="2.70" speed="9.25" harmonicMeanSpeed="7.40" length="5.00" nVehEntered="12"/>
    <interval begin="27000.00" end="27300.00" id="10_0_D1.1" nVehContrib="11" flow="132.00" occupancy="3.08" speed="8.42" harmonicMeanSpeed="5.95" length="5.00" nVehEntered="11"/>
    <interval begin="27000.00" end="27300.00" id="10_0_D1.2" nVehContrib="9" flow="108.00" occupancy="1.69" speed="10.43" harmonicMeanSpeed="8.86" length="5.00" nVehEntered="9"/>
    <interval begin="27000.00" end="27300.00" id="10_0_D1.3" nVehContrib="8" flow="96.00" occupancy="1.18" speed="11.59" harmonicMeanSpeed="11.27" length="5.00" nVehEntered="8"/>
    <interval begin="27000.00" end="27300.00" id="10_0_D1.4" nVehContrib="4" flow="48.00" occupancy="0.55" speed="12.19" harmonicMeanSpeed="12.07" length="5.00" nVehEntered="4"/>
    <interval begin="27000.00" end="27300.00" id="10_0_D2.0" nVehContrib="2" flow="24.00" occupancy="0.24" speed="13.92" harmonicMeanSpeed="13.86" length="5.00" nVehEntered="2"/>
    <interval begin="27000.00" end="27300.00" id="10_0_D2.1" nVehContrib="0" flow="0.00" occupancy="0.00" speed="-1.00" harmonicMeanSpeed="-1.00" length="-1.00" nVehEntered="0"/>
    <interval begin="27000.00" end="27300.00" id="10_0_D2.2" nVehContrib="0" flow="0.00" occupancy="0.00" speed="-1.00" harmonicMeanSpeed="-1.00" length="-1.00" nVehEntered="0"/>
    <interval begin="27000.00" end="27300.00" id="10_0_D2.3" nVehContrib="2" flow="24.00" occupancy="0.34" speed="9.94" harmonicMeanSpeed="9.89" length="5.00" nVehEntered="2"/>
    <interval begin="27000.00" end="27300.00" id="10_0_D2.4" nVehContrib="2" flow="24.00" occupancy="0.32" speed="10.61" harmonicMeanSpeed="10.39" length="5.00" nVehEntered="2"/>
    <interval begin="27000.00" end="27300.00" id="10_0_D3.0" nVehContrib="11" flow="132.00" occupancy="2.82" speed="8.52" harmonicMeanSpeed="6.50" length="5.00" nVehEntered="11"/>
    <interval begin="27000.00" end="27300.00" id="10_0_D3.1" nVehContrib="11" flow="132.00" occupancy="2.33" speed="9.06" harmonicMeanSpeed="8.13" length="5.00" nVehEntered="12"/>
    <interval begin="27000.00" end="27300.00" id="10_0_D3.2" nVehContrib="11" flow="132.00" occupancy="2.69" speed="8.83" harmonicMeanSpeed="6.82" length="5.00" nVehEntered="11"/>
    <interval begin="27000.00" end="27300.00" id="10_0_D3.3" nVehContrib="0" flow="0.00" occupancy="0.00" speed="-1.00" harmonicMeanSpeed="-1.00" length="-1.00" nVehEntered="0"/>
    <interval begin="27000.00" end="27300.00" id="10_0_D3.4" nVehContrib="0" flow="0.00" occupancy="0.00" speed="-1.00" harmonicMeanSpeed="-1.00" length="-1.00" nVehEntered="0"/>
    <interval begin="27000.00" end="27300.00" id="101_0_D0.0" nVehContrib="9" flow="108.00" occupancy="1.07" speed="14.14" harmonicMeanSpeed="14.03" length="5.00" nVehEntered="9"/>
    <interval begin="27000.00" end="27300.00" id="101_0_D0.1" nVehContrib="9" flow="108.00" occupancy="1.07" speed="14.14" harmonicMeanSpeed="14.03" length="5.00" nVehEntered="9"/>
    <interval begin="27000.00" end="27300.00" id="101_0_D1.0" nVehContrib="0" flow="0.00" occupancy="0.00" speed="-1.00" harmonicMeanSpeed="-1.00" length="-1.00" nVehEntered="0"/>
    <interval begin="27000.00" end="27300.00" id="101_0_D1.1" nVehContrib="0" flow="0.00" occupancy="0.00" speed="-1.00" harmonicMeanSpeed="-1.00" length="-1.00" nVehEntered="0"/>
    <interval begin="27000.00" end="27300.00" id="101_0_D2.0" nVehContrib="0" flow="0.00" occupancy="0.00" speed="-1.00" harmonicMeanSpeed="-1.00" length="-1.00" nVehEntered="0"/>
    <interval begin="27000.00" end="27300.00" id="101_0_D2.1" nVehContrib="0" flow="0.00" occupancy="0.00" speed="-1.00" harmonicMeanSpeed="-1.00" length="-1.00" nVehEntered="0"/>
    <interval begin="27000.00" end="27300.00" id="101_0_D3.0" nVehContrib="0" flow="0.00" occupancy="0.00" speed="-1.00" harmonicMeanSpeed="-1.00" length="-1.00" nVehEntered="0"/>
    <interval begin="27000.00" end="27300.00" id="101_0_D3.1" nVehContrib="0" flow="0.00" occupancy="0.00" speed="-1.00" harmonicMeanSpeed="-1.00" length="-1.00" nVehEntered="0"/>
    <interval begin="27000.00" end="27300.00" id="102_0_D0.0" nVehContrib="18" flow="216.00" occupancy="2.84" speed="11.65" harmonicMeanSpeed="10.57" length="5.00" nVehEntered="18"/>
    <interval begin="27000.00" end="27300.00" id="102_0_D0.1" nVehContrib="22" flow="264.00" occupancy="4.58" speed="10.38" harmonicMeanSpeed="8.01" length="5.00" nVehEntered="22"/>
    <interval begin="27000.00" end="27300.00" id="102_0_D0.2" nVehContrib="18" flow="216.00" occupancy="3.81" speed="9.98" harmonicMeanSpeed="7.88" length="5.00" nVehEntered="18"/>
    <interval begin="27000.00" end="27300.00" id="102_0_D0.3" nVehContrib="2" flow="24.00" occupancy="0.26" speed="13.06" harmonicMeanSpeed="13.06" length="5.00" nVehEntered="2"/>
    <interval begin="27000.00" end="27300.00" id="102_0_D1.0" nVehContrib="13" flow="156.00" occupancy="1.92" speed="11.43" harmonicMeanSpeed="11.29" length="5.00" nVehEntered="13"/>
    <interval begin="27000.00" end="27300.00" id="102_0_D2.0" nVehContrib="4" flow="48.00" occupancy="0.60" speed="11.09" harmonicMeanSpeed="11.06" length="5.00" nVehEntered="4"/>
    <interval begin="27000.00" end="27300.00" id="102_0_D2.1" nVehContrib="0" flow="0.00" occupancy="0.00" speed="-1.00" harmonicMeanSpeed="-1.00" length="-1.00" nVehEntered="0"/>
    <interval begin="27000.00" end="27300.00" id="102_0_D2.2" nVehContrib="0" flow="0.00" occupancy="0.00" speed="-1.00" harmonicMeanSpeed="-1.00" length="-1.00" nVehEntered="0"/>
    <interval begin="27000.00" end="27300.00" id="102_0_D2.3" nVehContrib="0" flow="0.00" occupancy="0.00" speed="-1.00" harmonicMeanSpeed="-1.00" length="-1.00" nVehEntered="0"/>
    <interval begin="27000.00" end="27300.00" id="102_0_D3.0" nVehContrib="3" flow="36.00" occupancy="0.50" speed="10.42" harmonicMeanSpeed="10.08" length="5.00" nVehEntered="3"/>
    <interval begin="27000.00" end="27300.00" id="103_0_D0.0" nVehContrib="18" flow="216.00" occupancy="2.64" speed="11.75" harmonicMeanSpeed="11.37" length="5.00" nVehEntered="18"/>
    <interval begin="27000.00" end="27300.00" id="103_0_D0.1" nVehContrib="0" flow="0.00" occupancy="0.00" speed="-1.00" harmonicMeanSpeed="-1.00" length="-1.00" nVehEntered="0"/>
    <interval begin="27000.00" end="27300.00" id="103_0_D0.2" nVehContrib="10" flow="120.00" occupancy="1.82" speed="10.27" harmonicMeanSpeed="9.15" length="5.00" nVehEntered="10"/>
    <interval begin="27000.00" end="27300.00" id="103_0_D0.3" nVehContrib="15" flow="180.00" occupancy="2.32" speed="11.14" harmonicMeanSpeed="10.78" length="5.00" nVehEntered="15"/>
    <interval begin="27000.00" end="27300.00" id="103_0_D1.0" nVehContrib="12" flow="144.00" occupancy="1.27" speed="16.23" harmonicMeanSpeed="15.72" length="5.00" nVehEntered="12"/>
    <interval begin="27000.00" end="27300.00" id="103_0_D1.1" nVehContrib="14" flow="168.00" occupancy="1.75" speed="14.32" harmonicMeanSpeed="13.34" length="5.00" nVehEntered="14"/>
    <interval begin="27000.00" end="27300.00" id="103_0_D1.2" nVehContrib="21" flow="252.00" occupancy="2.69" speed="15.08" harmonicMeanSpeed="12.99" length="5.00" nVehEntered="21"/>
    <interval begin="27000.00" end="27300.00" id="103_0_D1.3" nVehContrib="8" flow="96.00" occupancy="0.81" speed="16.63" harmonicMeanSpeed="16.55" length="5.00" nVehEntered="8"/>
    <interval begin="27000.00" end="27300.00" id="103_0_D1.4" nVehContrib="0" flow="0.00" occupancy="0.00" speed="-1.00" harmonicMeanSpeed="-1.00" length="-1.00" nVehEntered="0"/>
    <interval begin="27000.00" end="27300.00" id="103_0_D2.0" nVehContrib="10" flow="120.00" occupancy="1.39" speed="12.32" harmonicMeanSpeed="11.97" length="5.00" nVehEntered="10"/>
    <interval begin="27000.00" end="27300.00" id="103_0_D2.1" nVehContrib="1" flow="12.00" occupancy="0.12" speed="13.91" harmonicMeanSpeed="13.91" length="5.00" nVehEntered="1"/>
    <interval begin="27000.00" end="27300.00" id="103_0_D2.2" nVehContrib="0" flow="0.00" occupancy="0.00" speed="-1.00" harmonicMeanSpeed="-1.00" length="-1.00" nVehEntered="0"/>
    <interval begin="27000.00" end="27300.00" id="103_0_D2.3" nVehContrib="0" flow="0.00" occupancy="0.00" speed="-1.00" harmonicMeanSpeed="-1.00" length="-1.00" nVehEntered="0"/>
    <interval begin="27000.00" end="27300.00" id="103_0_D2.4" nVehContrib="0" flow="0.00" occupancy="0.00" speed="-1.00" harmonicMeanSpeed="-1.00" length="-1.00" nVehEntered="0"/>
    <interval begin="27000.00" end="27300.00" id="103_0_D2.5" nVehContrib="0" flow="0.00" occupancy="0.00" speed="-1.00" harmonicMeanSpeed="-1.00" length="-1.00" nVehEntered="0"/>
    <interval begin="27000.00" end="27300.00" id="104_0_D0.0" nVehContrib="3" flow="36.00" occupancy="0.42" speed="12.03" harmonicMeanSpeed="11.99" length="5.00" nVehEntered="3"/>
    <interval begin="27000.00" end="27300.00" id="104_0_D0.1" nVehContrib="0" flow="0.00" occupancy="0.00" speed="-1.00" harmonicMeanSpeed="-1.00" length="-1.00" nVehEntered="0"/>
    <interval begin="27000.00" end="27300.00" id="104_0_D0.2" nVehContrib="0" flow="0.00" occupancy="0.00" speed="-1.00" harmonicMeanSpeed="-1.00" length="-1.00" nVehEntered="0"/>
    <interval begin="27000.00" end="27300.00" id="104_0_D1.0" nVehContrib="5" flow="60.00" occupancy="0.72" speed="11.75" harmonicMeanSpeed="11.55" length="5.00" nVehEntered="5"/>
    <interval begin="27000.00" end="27300.00" id="104_0_D1.1" nVehContrib="1" flow="12.00" occupancy="0.14" speed="11.53" harmonicMeanSpeed="11.53" length="5.00" nVehEntered="1"/>
    <interval begin="27000.00" end="27300.00" id="104_0_D2.0" nVehContrib="6" flow="72.00" occupancy="1.00" speed="12.18" harmonicMeanSpeed="12.14" length="5.00" nVehEntered="8"/>
    <interval begin="27000.00" end="27300.00" id="104_0_D2.1" nVehContrib="6" flow="72.00" occupancy="1.26" speed="9.78" harmonicMeanSpeed="7.94" length="5.00" nVehEntered="6"/>
    <interval begin="27000.00" end="27300.00" id="104_0_D2.2" nVehContrib="4" flow="48.00" occupancy="0.50" speed="13.44" harmonicMeanSpeed="13.25" length="5.00" nVehEntered="4"/>
    <interval begin="27000.00" end="27300.00" id="104_0_D3.0" nVehContrib="1" flow="12.00" occupancy="0.14" speed="11.73" harmonicMeanSpeed="11.73" length="5.00" nVehEntered="1"/>
    <interval begin="27000.00" end="27300.00" id="104_0_D3.1" nVehContrib="1" flow="12.00" occupancy="0.11" speed="15.03" harmonicMeanSpeed="15.03" length="5.00" nVehEntered="1"/>
    <interval begin="27000.00" end="27300.00" id="104_0_D3.2" nVehContrib="1" flow="12.00" occupancy="0.19" speed="8.79" harmonicMeanSpeed="8.79" length="5.00" nVehEntered="1"/>
    <interval begin="27000.00" end="27300.00" id="105_0_D0.0" nVehContrib="0" flow="0.00" occupancy="0.00" speed="-1.00" harmonicMeanSpeed="-1.00" length="-1.00" nVehEntered="0"/>
    <interval begin="27000.00" end="27300.00" id="105_0_D0.1" nVehContrib="2" flow="24.00" occupancy="0.25" speed="13.54" harmonicMeanSpeed="13.54" length="5.00" nVehEntered="2"/>
    <interval begin="27000.00" end="27300.00" id="105_0_D0.2" nVehContrib="1" flow="12.00" occupancy="0.12" speed="13.98" harmonicMeanSpeed="13.98" length="5.00" nVehEntered="1"/>
    <interval begin="27000.00" end="27300.00" id="105_0_D0.3" nVehContrib="0" flow="0.00" occupancy="0.00" speed="-1.00" harmonicMeanSpeed="-1.00" length="-1.00" nVehEntered="0"/>
    <interval begin="27000.00" end="27300.00" id="105_0_D1.0" nVehContrib="3" flow="36.00" occupancy="0.54" speed="9.59" harmonicMeanSpeed="9.34" length="5.00" nVehEntered="3"/>
    <interval begin="27000.00" end="27300.00" id="105_0_D1.1" nVehContrib="2" flow="24.00" occupancy="0.33" speed="10.23" harmonicMeanSpeed="10.17" length="5.00" nVehEntered="2"/>
    <interval begin="27000.00" end="27300.00" id="105_0_D2.0" nVehContrib="13" flow="156.00" occupancy="5.89" speed="4.57" harmonicMeanSpeed="3.68" length="5.00" nVehEntered="13"/>
    <interval begin="27000.00" end="27300.00" id="105_0_D2.1" nVehContrib="13" flow="156.00" occupancy="5.74" speed="4.57" harmonicMeanSpeed="3.77" length="5.00" nVehEntered="13"/>
    <interval begin="27000.00" end="27300.00" id="105_0_D2.2" nVehContrib="3" flow="36.00" occupancy="0.50" speed="10.23" harmonicMeanSpeed="10.03" length="5.00" nVehEntered="3"/>
    <interval begin="27000.00" end="27300.00" id="105_0_D3.0" nVehContrib="1" flow="12.00" occupancy="0.15" speed="11.40" harmonicMeanSpeed="11.40" length="5.00" nVehEntered="1"/>
    <interval begin="27000.00" end="27300.00" id="105_0_D3.1" nVehContrib="1" flow="12.00" occupancy="0.17" speed="9.89" harmonicMeanSpeed="9.89" length="5.00" nVehEntered="1"/>
    <interval begin="27000.00" end="27300.00" id="105_0_D3.2" nVehContrib="1" flow="12.00" occupancy="0.15" speed="11.41" harmonicMeanSpeed="11.41" length="5.00" nVehEntered="1"/>
    <interval begin="27000.00" end="27300.00" id="106_0_D0.0" nVehContrib="7" flow="84.00" occupancy="0.97" speed="12.94" harmonicMeanSpeed="12.08" length="5.00" nVehEntered="7"/>
    <interval begin="27000.00" end="27300.00" id="106_0_D0.1" nVehContrib="2" flow="24.00" occupancy="0.27" speed="14.36" harmonicMeanSpeed="14.33" length="5.00" nVehEntered="3"/>
    <interval begin="27000.00" end="27300.00" id="106_0_D0.2" nVehContrib="3" flow="36.00" occupancy="0.66" speed="10.80" harmonicMeanSpeed="7.59" length="5.00" nVehEntered="3"/>
    <interval begin="27000.00" end="27300.00" id="106_0_D0.3" nVehContrib="0" flow="0.00" occupancy="0.00" speed="-1.00" harmonicMeanSpeed="-1.00" length="-1.00" nVehEntered="0"/>
    <interval begin="27000.00" end="27300.00" id="106_0_D1.0" nVehContrib="4" flow="48.00" occupancy="0.97" speed="8.74" harmonicMeanSpeed="6.86" length="5.00" nVehEntered="4"/>
    <interval begin="27000.00" end="27300.00" id="106_0_D1.1" nVehContrib="4" flow="48.00" occupancy="0.97" speed="8.74" harmonicMeanSpeed="6.86" length="5.00" nVehEntered="4"/>
    <interval begin="27000.00" end="27300.00" id="106_0_D2.0" nVehContrib="19" flow="228.00" occupancy="4.04" speed="10.15" harmonicMeanSpeed="7.95" length="5.00" nVehEntered="20"/>
    <interval begin="27000.00" end="27300.00" id="106_0_D2.1" nVehContrib="18" flow="216.00" occupancy="3.96" speed="10.99" harmonicMeanSpeed="7.80" length="5.00" nVehEntered="20"/>
    <interval begin="27000.00" end="27300.00" id="106_0_D2.2" nVehContrib="10" flow="120.00" occupancy="2.23" speed="10.52" harmonicMeanSpeed="7.48" length="5.00" nVehEntered="10"/>
    <interval begin="27000.00" end="27300.00" id="106_0_D2.3" nVehContrib="3" flow="36.00" occupancy="0.39" speed="13.03" harmonicMeanSpeed="12.99" length="5.00" nVehEntered="3"/>
    <interval begin="27000.00" end="27300.00" id="106_0_D3.0" nVehContrib="5" flow="60.00" occupancy="0.85" speed="10.08" harmonicMeanSpeed="9.83" length="5.00" nVehEntered="5"/>
    <interval begin="27000.00" end="27300.00" id="106_0_D3.1" nVehContrib="5" flow="60.00" occupancy="0.85" speed="10.08" harmonicMeanSpeed="9.83" length="5.00" nVehEntered="5"/>
    <interval begin="27000.00" end="27300.00" id="107_0_D0.0" nVehContrib="36" flow="432.00" occupancy="10.80" speed="7.53" harmonicMeanSpeed="5.56" length="5.00" nVehEntered="36"/>
    <interval begin="27000.00" end="27300.00" id="107_0_D0.1" nVehContrib="0" flow="0.00" occupancy="0.00" speed="-1.00" harmonicMeanSpeed="-1.00" length="-1.00" nVehEntered="0"/>
    <interval begin="27000.00" end="27300.00" id="107_0_D0.2" nVehContrib="0" flow="0.00" occupancy="0.00" speed="-1.00" harmonicMeanSpeed="-1.00" length="-1.00" nVehEntered="0"/>
    <interval begin="27000.00" end="27300.00" id="107_0_D0.3" nVehContrib="0" flow="0.00" occupancy="0.00" speed="-1.00" harmonicMeanSpeed="-1.00" length="-1.00" nVehEntered="0"/>
    <interval begin="27000.00" end="27300.00" id="107_0_D1.0" nVehContrib="0" flow="0.00" occupancy="0.00" speed="-1.00" harmonicMeanSpeed="-1.00" length="-1.00" nVehEntered="0"/>
    <interval begin="27000.00" end="27300.00" id="107_0_D1.1" nVehContrib="0" flow="0.00" occupancy="0.00" speed="-1.00" harmonicMeanSpeed="-1.00" length="-1.00" nVehEntered="0"/>
    <interval begin="27000.00" end="27300.00" id="107_0_D2.0" nVehContrib="0" flow="0.00" occupancy="0.00" speed="-1.00" harmonicMeanSpeed="-1.00" length="-1.00" nVehEntered="0"/>
    <interval begin="27000.00" end="27300.00" id="107_0_D2.1" nVehContrib="0" flow="0.00" occupancy="0.00" speed="-1.00" harmonicMeanSpeed="-1.00" length="-1.00" nVehEntered="0"/>
    <interval begin="27000.00" end="27300.00" id="107_0_D2.2" nVehContrib="0" flow="0.00" occupancy="0.00" speed="-1.00" harmonicMeanSpeed="-1.00" length="-1.00" nVehEntered="0"/>
    <interval begin="27000.00" end="27300.00" id="107_0_D2.3" nVehContrib="0" flow="0.00" occupancy="0.00" speed="-1.00" harmonicMeanSpeed="-1.00" length="-1.00" nVehEntered="0"/>
    <interval begin="27000.00" end="27300.00" id="107_0_D3.0" nVehContrib="0" flow="0.00" occupancy="0.00" speed="-1.00" harmonicMeanSpeed="-1.00" length="-1.00" nVehEntered="0"/>
    <interval begin="27000.00" end="27300.00" id="107_0_D3.1" nVehContrib="6" flow="72.00" occupancy="28.52" speed="2.29" harmonicMeanSpeed="0.35" length="5.00" nVehEntered="6"/>
    <interval begin="27000.00" end="27300.00" id="107_0_D3.2" nVehContrib="10" flow="120.00" occupancy="29.69" speed="3.70" harmonicMeanSpeed="0.56" length="5.00" nVehEntered="11"/>
    <interval begin="27000.00" end="27300.00" id="108_0_D0.0" nVehContrib="0" flow="0.00" occupancy="0.00" speed="-1.00" harmonicMeanSpeed="-1.00" length="-1.00" nVehEntered="0"/>
    <interval begin="27000.00" end="27300.00" id="108_0_D0.1" nVehContrib="0" flow="0.00" occupancy="0.00" speed="-1.00" harmonicMeanSpeed="-1.00" length="-1.00" nVehEntered="0"/>
    <interval begin="27000.00" end="27300.00" id="108_0_D0.2" nVehContrib="0" flow="0.00" occupancy="0.00" speed="-1.00" harmonicMeanSpeed="-1.00" length="-1.00" nVehEntered="0"/>
    <interval begin="27000.00" end="27300.00" id="108_0_D0.3" nVehContrib="0" flow="0.00" occupancy="0.00" speed="-1.00" harmonicMeanSpeed="-1.00" length="-1.00" nVehEntered="0"/>
    <interval begin="27000.00" end="27300.00" id="108_0_D1.0" nVehContrib="0" flow="0.00" occupancy="0.00" speed="-1.00" harmonicMeanSpeed="-1.00" length="-1.00" nVehEntered="0"/>
    <interval begin="27000.00" end="27300.00" id="108_0_D1.1" nVehContrib="0" flow="0.00" occupancy="0.00" speed="-1.00" harmonicMeanSpeed="-1.00" length="-1.00" nVehEntered="0"/>
    <interval begin="27000.00" end="27300.00" id="108_0_D1.2" nVehContrib="24" flow="288.00" occupancy="11.41" speed="3.97" harmonicMeanSpeed="3.50" length="5.00" nVehEntered="24"/>
    <interval begin="27000.00" end="27300.00" id="108_0_D2.0" nVehContrib="0" flow="0.00" occupancy="0.00" speed="-1.00" harmonicMeanSpeed="-1.00" length="-1.00" nVehEntered="0"/>
    <interval begin="27000.00" end="27300.00" id="108_0_D2.1" nVehContrib="0" flow="0.00" occupancy="0.00" speed="-1.00" harmonicMeanSpeed="-1.00" length="-1.00" nVehEntered="0"/>
    <interval begin="27000.00" end="27300.00" id="108_0_D2.2" nVehContrib="0" flow="0.00" occupancy="0.00" speed="-1.00" harmonicMeanSpeed="-1.00" length="-1.00" nVehEntered="0"/>
    <interval begin="27000.00" end="27300.00" id="108_0_D2.3" nVehContrib="0" flow="0.00" occupancy="0.00" speed="-1.00" harmonicMeanSpeed="-1.00" length="-1.00" nVehEntered="0"/>
    <interval begin="27000.00" end="27300.00" id="108_0_D2.4" nVehContrib="18" flow="216.00" occupancy="7.66" speed="5.62" harmonicMeanSpeed="3.92" length="5.00" nVehEntered="18"/>
    <interval begin="27000.00" end="27300.00" id="108_0_D3.0" nVehContrib="0" flow="0.00" occupancy="0.00" speed="-1.00" harmonicMeanSpeed="-1.00" length="-1.00" nVehEntered="0"/>
    <interval begin="27000.00" end="27300.00" id="108_0_D3.1" nVehContrib="0" flow="0.00" occupancy="0.00" speed="-1.00" harmonicMeanSpeed="-1.00" length="-1.00" nVehEntered="0"/>
    <interval begin="27000.00" end="27300.00" id="108_0_D3.2" nVehContrib="0" flow="0.00" occupancy="0.00" speed="-1.00" harmonicMeanSpeed="-1.00" length="-1.00" nVehEntered="0"/>
    <interval begin="27000.00" end="27300.00" id="109_0_D0.0" nVehContrib="1" flow="12.00" occupancy="0.13" speed="12.55" harmonicMeanSpeed="12.55" length="5.00" nVehEntered="1"/>
    <interval begin="27000.00" end="27300.00" id="109_0_D0.1" nVehContrib="0" flow="0.00" occupancy="0.00" speed="-1.00" harmonicMeanSpeed="-1.00" length="-1.00" nVehEntered="0"/>
    <interval begin="27000.00" end="27300.00" id="109_0_D0.2" nVehContrib="3" flow="36.00" occupancy="0.48" speed="10.75" harmonicMeanSpeed="10.52" length="5.00" nVehEntered="3"/>
    <interval begin="27000.00" end="27300.00" id="109_0_D1.0" nVehContrib="4" flow="48.00" occupancy="0.51" speed="13.38" harmonicMeanSpeed="13.20" length="5.00" nVehEntered="4"/>
    <interval begin="27000.00" end="27300.00" id="109_0_D1.1" nVehContrib="0" flow="0.00" occupancy="0.00" speed="-1.00" harmonicMeanSpeed="-1.00" length="-1.00" nVehEntered="0"/>
    <interval begin="27000.00" end="27300.00" id="109_0_D1.2" nVehContrib="2" flow="24.00" occupancy="0.25" speed="13.09" harmonicMeanSpeed="13.08" length="5.00" nVehEntered="2"/>
    <interval begin="27000.00" end="27300.00" id="109_0_D2.0" nVehContrib="12" flow="144.00" occupancy="2.30" speed="10.19" harmonicMeanSpeed="9.00" length="5.00" nVehEntered="13"/>
    <interval begin="27000.00" end="27300.00" id="109_0_D2.1" nVehContrib="11" flow="132.00" occupancy="2.02" speed="11.32" harmonicMeanSpeed="9.06" length="5.00" nVehEntered="11"/>
    <interval begin="27000.00" end="27300.00" id="109_0_D2.2" nVehContrib="0" flow="0.00" occupancy="0.00" speed="-1.00" harmonicMeanSpeed="-1.00" length="-1.00" nVehEntered="0"/>
    <interval begin="27000.00" end="27300.00" id="109_0_D3.0" nVehContrib="1" flow="12.00" occupancy="0.15" speed="11.12" harmonicMeanSpeed="11.12" length="5.00" nVehEntered="1"/>
    <interval begin="27000.00" end="27300.00" id="109_0_D3.1" nVehContrib="3" flow="36.00" occupancy="0.77" speed="8.02" harmonicMeanSpeed="6.47" length="5.00" nVehEntered="3"/>
    <interval begin="27000.00" end="27300.00" id="109_0_D3.2" nVehContrib="3" flow="36.00" occupancy="0.77" speed="8.02" harmonicMeanSpeed="6.47" length="5.00" nVehEntered="3"/>
    <interval begin="27000.00" end="27300.00" id="11_0_D0.0" nVehContrib="0" flow="0.00" occupancy="0.00" speed="-1.00" harmonicMeanSpeed="-1.00" length="-1.00" nVehEntered="0"/>
    <interval begin="27000.00" end="27300.00" id="11_0_D0.1" nVehContrib="7" flow="84.00" occupancy="1.02" speed="11.53" harmonicMeanSpeed="11.49" length="5.00" nVehEntered="7"/>
    <interval begin="27000.00" end="27300.00" id="11_0_D1.0" nVehContrib="0" flow="0.00" occupancy="0.00" speed="-1.00" harmonicMeanSpeed="-1.00" length="-1.00" nVehEntered="0"/>
    <interval begin="27000.00" end="27300.00" id="11_0_D1.1" nVehContrib="15" flow="180.00" occupancy="1.64" speed="15.33" harmonicMeanSpeed="15.22" length="5.00" nVehEntered="15"/>
    <interval begin="27000.00" end="27300.00" id="11_0_D1.2" nVehContrib="15" flow="180.00" occupancy="1.64" speed="15.33" harmonicMeanSpeed="15.22" length="5.00" nVehEntered="15"/>
    <interval begin="27000.00" end="27300.00" id="11_0_D2.0" nVehContrib="0" flow="0.00" occupancy="0.00" speed="-1.00" harmonicMeanSpeed="-1.00" length="-1.00" nVehEntered="0"/>
    <interval begin="27000.00" end="27300.00" id="11_0_D2.1" nVehContrib="34" flow="408.00" occupancy="10.48" speed="6.75" harmonicMeanSpeed="5.41" length="5.00" nVehEntered="34"/>
    <interval begin="27000.00" end="27300.00" id="11_0_D3.0" nVehContrib="0" flow="0.00" occupancy="0.00" speed="-1.00" harmonicMeanSpeed="-1.00" length="-1.00" nVehEntered="0"/>
    <interval begin="27000.00" end="27300.00" id="11_0_D3.1" nVehContrib="0" flow="0.00" occupancy="0.00" speed="-1.00" harmonicMeanSpeed="-1.00" length="-1.00" nVehEntered="0"/>
    <interval begin="27000.00" end="27300.00" id="11_0_D3.2" nVehContrib="0" flow="0.00" occupancy="0.00" speed="-1.00" harmonicMeanSpeed="-1.00" length="-1.00" nVehEntered="0"/>
    <interval begin="27000.00" end="27300.00" id="110_0_D0.0" nVehContrib="0" flow="0.00" occupancy="0.00" speed="-1.00" harmonicMeanSpeed="-1.00" length="-1.00" nVehEntered="0"/>
    <interval begin="27000.00" end="27300.00" id="110_0_D0.1" nVehContrib="0" flow="0.00" occupancy="0.00" speed="-1.00" harmonicMeanSpeed="-1.00" length="-1.00" nVehEntered="0"/>
    <interval begin="27000.00" end="27300.00" id="110_0_D1.0" nVehContrib="5" flow="60.00" occupancy="0.54" speed="15.88" harmonicMeanSpeed="15.47" length="5.00" nVehEntered="5"/>
    <interval begin="27000.00" end="27300.00" id="110_0_D1.1" nVehContrib="2" flow="24.00" occupancy="0.24" speed="13.86" harmonicMeanSpeed="13.73" length="5.00" nVehEntered="2"/>
    <interval begin="27000.00" end="27300.00" id="110_0_D1.2" nVehContrib="14" flow="168.00" occupancy="1.86" speed="12.96" harmonicMeanSpeed="12.52" length="5.00" nVehEntered="14"/>
    <interval begin="27000.00" end="27300.00" id="110_0_D2.0" nVehContrib="0" flow="0.00" occupancy="0.00" speed="-1.00" harmonicMeanSpeed="-1.00" length="-1.00" nVehEntered="0"/>
    <interval begin="27000.00" end="27300.00" id="110_0_D2.1" nVehContrib="12" flow="144.00" occupancy="5.16" speed="11.04" harmonicMeanSpeed="3.87" length="5.00" nVehEntered="12"/>
    <interval begin="27000.00" end="27300.00" id="110_0_D2.2" nVehContrib="0" flow="0.00" occupancy="0.00" speed="-1.00" harmonicMeanSpeed="-1.00" length="-1.00" nVehEntered="0"/>
    <interval begin="27000.00" end="27300.00" id="110_0_D3.0" nVehContrib="0" flow="0.00" occupancy="0.00" speed="-1.00" harmonicMeanSpeed="-1.00" length="-1.00" nVehEntered="0"/>
    <interval begin="27000.00" end="27300.00" id="110_0_D3.1" nVehContrib="0" flow="0.00" occupancy="0.00" speed="-1.00" harmonicMeanSpeed="-1.00" length="-1.00" nVehEntered="0"/>
    <interval begin="27000.00" end="27300.00" id="110_0_D3.2" nVehContrib="9" flow="108.00" occupancy="1.10" speed="13.82" harmonicMeanSpeed="13.67" length="5.00" nVehEntered="9"/>
    <interval begin="27000.00" end="27300.00" id="111_0_D0.0" nVehContrib="0" flow="0.00" occupancy="0.00" speed="-1.00" harmonicMeanSpeed="-1.00" length="-1.00" nVehEntered="0"/>
    <interval begin="27000.00" end="27300.00" id="111_0_D0.1" nVehContrib="1" flow="12.00" occupancy="0.12" speed="14.02" harmonicMeanSpeed="14.02" length="5.00" nVehEntered="1"/>
    <interval begin="27000.00" end="27300.00" id="111_0_D0.2" nVehContrib="4" flow="48.00" occupancy="0.61" speed="11.21" harmonicMeanSpeed="10.94" length="5.00" nVehEntered="4"/>
    <interval begin="27000.00" end="27300.00" id="111_0_D1.0" nVehContrib="0" flow="0.00" occupancy="0.00" speed="-1.00" harmonicMeanSpeed="-1.00" length="-1.00" nVehEntered="0"/>
    <interval begin="27000.00" end="27300.00" id="111_0_D1.1" nVehContrib="0" flow="0.00" occupancy="0.00" speed="-1.00" harmonicMeanSpeed="-1.00" length="-1.00" nVehEntered="0"/>
    <interval begin="27000.00" end="27300.00" id="111_0_D1.2" nVehContrib="9" flow="108.00" occupancy="1.52" speed="10.63" harmonicMeanSpeed="9.88" length="5.00" nVehEntered="9"/>
    <interval begin="27000.00" end="27300.00" id="111_0_D2.0" nVehContrib="38" flow="456.00" occupancy="9.68" speed="8.09" harmonicMeanSpeed="6.54" length="5.00" nVehEntered="38"/>
    <interval begin="27000.00" end="27300.00" id="111_0_D2.1" nVehContrib="38" flow="456.00" occupancy="9.68" speed="8.09" harmonicMeanSpeed="6.54" length="5.00" nVehEntered="38"/>
    <interval begin="27000.00" end="27300.00" id="111_0_D3.0" nVehContrib="7" flow="84.00" occupancy="1.05" speed="12.56" harmonicMeanSpeed="12.34" length="5.00" nVehEntered="8"/>
    <interval begin="27000.00" end="27300.00" id="111_0_D3.1" nVehContrib="3" flow="36.00" occupancy="0.67" speed="8.81" harmonicMeanSpeed="7.44" length="5.00" nVehEntered="3"/>
    <interval begin="27000.00" end="27300.00" id="111_0_D3.2" nVehContrib="1" flow="12.00" occupancy="0.12" speed="13.71" harmonicMeanSpeed="13.71" length="5.00" nVehEntered="1"/>