<?xml version="1.0" encoding="UTF-8"?>

<!-- generated on 2025-02-03 15:09:22 by Eclipse SUMO GUI Version 1.21.0
<sumoConfiguration xmlns:xsi="http://www.w3.org/2001/XMLSchema-instance" xsi:noNamespaceSchemaLocation="http://sumo.dlr.de/xsd/sumoConfiguration.xsd">

    <input>
        <net-file value="C:\Users\xh8\ornl_workspace\github_workspace\utdf2gmns\datasets\data_Tempe_network\utdf_to_sumo\utdf_to_sumo.net.xml"/>
        <route-files value="C:\Users\xh8\ornl_workspace\github_workspace\utdf2gmns\datasets\data_Tempe_network\utdf_to_sumo\utdf_to_sumo.rou.xml"/>
    </input>

    <time>
        <begin value="0"/>
        <end value="3600"/>
        <step-length value="0.1"/>
    </time>

</sumoConfiguration>
-->

<detector xmlns:xsi="http://www.w3.org/2001/XMLSchema-instance" xsi:noNamespaceSchemaLocation="http://sumo.dlr.de/xsd/det_e1_file.xsd">
    <interval begin="0.00" end="300.00" id="10_0_D0.0" nVehContrib="0" flow="0.00" occupancy="0.00" speed="-1.00" harmonicMeanSpeed="-1.00" length="-1.00" nVehEntered="0"/>
    <interval begin="0.00" end="300.00" id="10_0_D0.1" nVehContrib="0" flow="0.00" occupancy="0.00" speed="-1.00" harmonicMeanSpeed="-1.00" length="-1.00" nVehEntered="0"/>
    <interval begin="0.00" end="300.00" id="10_0_D0.2" nVehContrib="0" flow="0.00" occupancy="0.00" speed="-1.00" harmonicMeanSpeed="-1.00" length="-1.00" nVehEntered="0"/>
    <interval begin="0.00" end="300.00" id="10_0_D1.0" nVehContrib="0" flow="0.00" occupancy="0.00" speed="-1.00" harmonicMeanSpeed="-1.00" length="-1.00" nVehEntered="0"/>
    <interval begin="0.00" end="300.00" id="10_0_D1.1" nVehContrib="0" flow="0.00" occupancy="0.00" speed="-1.00" harmonicMeanSpeed="-1.00" length="-1.00" nVehEntered="0"/>
    <interval begin="0.00" end="300.00" id="10_0_D1.2" nVehContrib="0" flow="0.00" occupancy="0.00" speed="-1.00" harmonicMeanSpeed="-1.00" length="-1.00" nVehEntered="0"/>
    <interval begin="0.00" end="300.00" id="10_0_D1.3" nVehContrib="0" flow="0.00" occupancy="0.00" speed="-1.00" harmonicMeanSpeed="-1.00" length="-1.00" nVehEntered="0"/>
    <interval begin="0.00" end="300.00" id="10_0_D1.4" nVehContrib="0" flow="0.00" occupancy="0.00" speed="-1.00" harmonicMeanSpeed="-1.00" length="-1.00" nVehEntered="0"/>
    <interval begin="0.00" end="300.00" id="10_0_D1.5" nVehContrib="1" flow="12.00" occupancy="0.13" speed="13.05" harmonicMeanSpeed="13.05" length="5.00" nVehEntered="1"/>
    <interval begin="0.00" end="300.00" id="10_0_D2.0" nVehContrib="2" flow="24.00" occupancy="0.16" speed="22.92" harmonicMeanSpeed="20.56" length="5.00" nVehEntered="2"/>
    <interval begin="0.00" end="300.00" id="10_0_D2.1" nVehContrib="1" flow="12.00" occupancy="0.13" speed="13.04" harmonicMeanSpeed="13.04" length="5.00" nVehEntered="1"/>
    <interval begin="0.00" end="300.00" id="10_0_D2.2" nVehContrib="0" flow="0.00" occupancy="0.00" speed="-1.00" harmonicMeanSpeed="-1.00" length="-1.00" nVehEntered="0"/>
    <interval begin="0.00" end="300.00" id="10_0_D3.0" nVehContrib="0" flow="0.00" occupancy="0.00" speed="-1.00" harmonicMeanSpeed="-1.00" length="-1.00" nVehEntered="0"/>
    <interval begin="0.00" end="300.00" id="10_0_D3.1" nVehContrib="2" flow="24.00" occupancy="0.17" speed="26.15" harmonicMeanSpeed="19.57" length="5.00" nVehEntered="2"/>
    <interval begin="0.00" end="300.00" id="10_0_D3.2" nVehContrib="2" flow="24.00" occupancy="0.26" speed="13.05" harmonicMeanSpeed="13.05" length="5.00" nVehEntered="2"/>
    <interval begin="0.00" end="300.00" id="10_0_D3.3" nVehContrib="1" flow="12.00" occupancy="0.13" speed="13.05" harmonicMeanSpeed="13.05" length="5.00" nVehEntered="1"/>
    <interval begin="0.00" end="300.00" id="101_0_D0.0" nVehContrib="1" flow="12.00" occupancy="0.07" speed="23.27" harmonicMeanSpeed="23.27" length="5.00" nVehEntered="1"/>
    <interval begin="0.00" end="300.00" id="101_0_D1.0" nVehContrib="0" flow="0.00" occupancy="0.00" speed="-1.00" harmonicMeanSpeed="-1.00" length="-1.00" nVehEntered="0"/>
    <interval begin="0.00" end="300.00" id="101_0_D2.0" nVehContrib="0" flow="0.00" occupancy="0.00" speed="-1.00" harmonicMeanSpeed="-1.00" length="-1.00" nVehEntered="0"/>
    <interval begin="0.00" end="300.00" id="101_0_D2.1" nVehContrib="0" flow="0.00" occupancy="0.00" speed="-1.00" harmonicMeanSpeed="-1.00" length="-1.00" nVehEntered="0"/>
    <interval begin="0.00" end="300.00" id="101_0_D3.0" nVehContrib="0" flow="0.00" occupancy="0.00" speed="-1.00" harmonicMeanSpeed="-1.00" length="-1.00" nVehEntered="0"/>
    <interval begin="0.00" end="300.00" id="102_0_D0.0" nVehContrib="0" flow="0.00" occupancy="0.00" speed="-1.00" harmonicMeanSpeed="-1.00" length="-1.00" nVehEntered="0"/>
    <interval begin="0.00" end="300.00" id="102_0_D0.1" nVehContrib="2" flow="24.00" occupancy="0.08" speed="41.51" harmonicMeanSpeed="41.22" length="5.00" nVehEntered="2"/>
    <interval begin="0.00" end="300.00" id="102_0_D0.2" nVehContrib="0" flow="0.00" occupancy="0.00" speed="-1.00" harmonicMeanSpeed="-1.00" length="-1.00" nVehEntered="0"/>
    <interval begin="0.00" end="300.00" id="102_0_D0.3" nVehContrib="0" flow="0.00" occupancy="0.00" speed="-1.00" harmonicMeanSpeed="-1.00" length="-1.00" nVehEntered="0"/>
    <interval begin="0.00" end="300.00" id="102_0_D0.4" nVehContrib="0" flow="0.00" occupancy="0.00" speed="-1.00" harmonicMeanSpeed="-1.00" length="-1.00" nVehEntered="0"/>
    <interval begin="0.00" end="300.00" id="102_0_D0.5" nVehContrib="0" flow="0.00" occupancy="0.00" speed="-1.00" harmonicMeanSpeed="-1.00" length="-1.00" nVehEntered="0"/>
    <interval begin="0.00" end="300.00" id="102_0_D1.0" nVehContrib="0" flow="0.00" occupancy="0.00" speed="-1.00" harmonicMeanSpeed="-1.00" length="-1.00" nVehEntered="0"/>
    <interval begin="0.00" end="300.00" id="102_0_D2.0" nVehContrib="1" flow="12.00" occupancy="0.12" speed="13.35" harmonicMeanSpeed="13.35" length="5.00" nVehEntered="1"/>
    <interval begin="0.00" end="300.00" id="102_0_D2.1" nVehContrib="0" flow="0.00" occupancy="0.00" speed="-1.00" harmonicMeanSpeed="-1.00" length="-1.00" nVehEntered="0"/>
    <interval begin="0.00" end="300.00" id="102_0_D2.2" nVehContrib="0" flow="0.00" occupancy="0.00" speed="-1.00" harmonicMeanSpeed="-1.00" length="-1.00" nVehEntered="0"/>
    <interval begin="0.00" end="300.00" id="102_0_D2.3" nVehContrib="0" flow="0.00" occupancy="0.00" speed="-1.00" harmonicMeanSpeed="-1.00" length="-1.00" nVehEntered="0"/>
    <interval begin="0.00" end="300.00" id="102_0_D2.4" nVehContrib="1" flow="12.00" occupancy="0.12" speed="13.91" harmonicMeanSpeed="13.91" length="5.00" nVehEntered="1"/>
    <interval begin="0.00" end="300.00" id="102_0_D3.0" nVehContrib="2" flow="24.00" occupancy="0.25" speed="13.48" harmonicMeanSpeed="13.30" length="5.00" nVehEntered="2"/>
    <interval begin="0.00" end="300.00" id="104_0_D0.0" nVehContrib="0" flow="0.00" occupancy="0.00" speed="-1.00" harmonicMeanSpeed="-1.00" length="-1.00" nVehEntered="0"/>
    <interval begin="0.00" end="300.00" id="104_0_D0.1" nVehContrib="1" flow="12.00" occupancy="0.13" speed="13.05" harmonicMeanSpeed="13.05" length="5.00" nVehEntered="1"/>
    <interval begin="0.00" end="300.00" id="104_0_D0.2" nVehContrib="2" flow="24.00" occupancy="0.18" speed="22.95" harmonicMeanSpeed="18.66" length="5.00" nVehEntered="2"/>
    <interval begin="0.00" end="300.00" id="104_0_D0.3" nVehContrib="0" flow="0.00" occupancy="0.00" speed="-1.00" harmonicMeanSpeed="-1.00" length="-1.00" nVehEntered="0"/>
    <interval begin="0.00" end="300.00" id="104_0_D0.4" nVehContrib="0" flow="0.00" occupancy="0.00" speed="-1.00" harmonicMeanSpeed="-1.00" length="-1.00" nVehEntered="0"/>
    <interval begin="0.00" end="300.00" id="104_0_D1.0" nVehContrib="0" flow="0.00" occupancy="0.00" speed="-1.00" harmonicMeanSpeed="-1.00" length="-1.00" nVehEntered="0"/>
    <interval begin="0.00" end="300.00" id="104_0_D2.0" nVehContrib="0" flow="0.00" occupancy="0.00" speed="-1.00" harmonicMeanSpeed="-1.00" length="-1.00" nVehEntered="0"/>
    <interval begin="0.00" end="300.00" id="104_0_D2.1" nVehContrib="0" flow="0.00" occupancy="0.00" speed="-1.00" harmonicMeanSpeed="-1.00" length="-1.00" nVehEntered="0"/>
    <interval begin="0.00" end="300.00" id="104_0_D2.2" nVehContrib="0" flow="0.00" occupancy="0.00" speed="-1.00" harmonicMeanSpeed="-1.00" length="-1.00" nVehEntered="0"/>
    <interval begin="0.00" end="300.00" id="104_0_D3.0" nVehContrib="0" flow="0.00" occupancy="0.00" speed="-1.00" harmonicMeanSpeed="-1.00" length="-1.00" nVehEntered="0"/>
    <interval begin="0.00" end="300.00" id="105_0_D0.0" nVehContrib="2" flow="24.00" occupancy="0.08" speed="39.81" harmonicMeanSpeed="39.80" length="5.00" nVehEntered="2"/>
    <interval begin="0.00" end="300.00" id="105_0_D0.1" nVehContrib="1" flow="12.00" occupancy="0.04" speed="40.19" harmonicMeanSpeed="40.19" length="5.00" nVehEntered="1"/>
    <interval begin="0.00" end="300.00" id="105_0_D0.2" nVehContrib="0" flow="0.00" occupancy="0.00" speed="-1.00" harmonicMeanSpeed="-1.00" length="-1.00" nVehEntered="0"/>
    <interval begin="0.00" end="300.00" id="105_0_D1.0" nVehContrib="1" flow="12.00" occupancy="0.13" speed="13.05" harmonicMeanSpeed="13.05" length="5.00" nVehEntered="1"/>
    <interval begin="0.00" end="300.00" id="105_0_D2.0" nVehContrib="2" flow="24.00" occupancy="0.26" speed="13.04" harmonicMeanSpeed="13.04" length="5.00" nVehEntered="2"/>
    <interval begin="0.00" end="300.00" id="105_0_D2.1" nVehContrib="0" flow="0.00" occupancy="0.08" speed="-1.00" harmonicMeanSpeed="-1.00" length="-1.00" nVehEntered="1"/>
    <interval begin="0.00" end="300.00" id="105_0_D3.0" nVehContrib="0" flow="0.00" occupancy="0.00" speed="-1.00" harmonicMeanSpeed="-1.00" length="-1.00" nVehEntered="0"/>
    <interval begin="0.00" end="300.00" id="106_0_D0.0" nVehContrib="3" flow="36.00" occupancy="0.15" speed="34.46" harmonicMeanSpeed="34.00" length="5.00" nVehEntered="3"/>
    <interval begin="0.00" end="300.00" id="106_0_D0.1" nVehContrib="0" flow="0.00" occupancy="0.00" speed="-1.00" harmonicMeanSpeed="-1.00" length="-1.00" nVehEntered="0"/>
    <interval begin="0.00" end="300.00" id="106_0_D0.2" nVehContrib="0" flow="0.00" occupancy="0.00" speed="-1.00" harmonicMeanSpeed="-1.00" length="-1.00" nVehEntered="0"/>
    <interval begin="0.00" end="300.00" id="106_0_D0.3" nVehContrib="0" flow="0.00" occupancy="0.00" speed="-1.00" harmonicMeanSpeed="-1.00" length="-1.00" nVehEntered="0"/>
    <interval begin="0.00" end="300.00" id="106_0_D0.4" nVehContrib="0" flow="0.00" occupancy="0.00" speed="-1.00" harmonicMeanSpeed="-1.00" length="-1.00" nVehEntered="0"/>
    <interval begin="0.00" end="300.00" id="106_0_D1.0" nVehContrib="0" flow="0.00" occupancy="0.00" speed="-1.00" harmonicMeanSpeed="-1.00" length="-1.00" nVehEntered="0"/>
    <interval begin="0.00" end="300.00" id="106_0_D2.0" nVehContrib="0" flow="0.00" occupancy="0.00" speed="-1.00" harmonicMeanSpeed="-1.00" length="-1.00" nVehEntered="0"/>
    <interval begin="0.00" end="300.00" id="106_0_D2.1" nVehContrib="0" flow="0.00" occupancy="0.00" speed="-1.00" harmonicMeanSpeed="-1.00" length="-1.00" nVehEntered="0"/>
    <interval begin="0.00" end="300.00" id="106_0_D2.2" nVehContrib="0" flow="0.00" occupancy="0.00" speed="-1.00" harmonicMeanSpeed="-1.00" length="-1.00" nVehEntered="0"/>
    <interval begin="0.00" end="300.00" id="106_0_D2.3" nVehContrib="2" flow="24.00" occupancy="0.14" speed="24.45" harmonicMeanSpeed="24.45" length="5.00" nVehEntered="2"/>
    <interval begin="0.00" end="300.00" id="106_0_D3.0" nVehContrib="0" flow="0.00" occupancy="0.00" speed="-1.00" harmonicMeanSpeed="-1.00" length="-1.00" nVehEntered="0"/>
    <interval begin="0.00" end="300.00" id="107_0_D0.0" nVehContrib="0" flow="0.00" occupancy="0.00" speed="-1.00" harmonicMeanSpeed="-1.00" length="-1.00" nVehEntered="0"/>
    <interval begin="0.00" end="300.00" id="107_0_D0.1" nVehContrib="0" flow="0.00" occupancy="0.00" speed="-1.00" harmonicMeanSpeed="-1.00" length="-1.00" nVehEntered="0"/>
    <interval begin="0.00" end="300.00" id="107_0_D0.2" nVehContrib="0" flow="0.00" occupancy="0.00" speed="-1.00" harmonicMeanSpeed="-1.00" length="-1.00" nVehEntered="0"/>
    <interval begin="0.00" end="300.00" id="107_0_D1.0" nVehContrib="0" flow="0.00" occupancy="0.00" speed="-1.00" harmonicMeanSpeed="-1.00" length="-1.00" nVehEntered="0"/>
    <interval begin="0.00" end="300.00" id="107_0_D2.0" nVehContrib="0" flow="0.00" occupancy="0.00" speed="-1.00" harmonicMeanSpeed="-1.00" length="-1.00" nVehEntered="0"/>
    <interval begin="0.00" end="300.00" id="107_0_D2.1" nVehContrib="0" flow="0.00" occupancy="0.00" speed="-1.00" harmonicMeanSpeed="-1.00" length="-1.00" nVehEntered="0"/>
    <interval begin="0.00" end="300.00" id="107_0_D2.2" nVehContrib="0" flow="0.00" occupancy="0.00" speed="-1.00" harmonicMeanSpeed="-1.00" length="-1.00" nVehEntered="0"/>
    <interval begin="0.00" end="300.00" id="107_0_D2.3" nVehContrib="0" flow="0.00" occupancy="0.00" speed="-1.00" harmonicMeanSpeed="-1.00" length="-1.00" nVehEntered="0"/>
    <interval begin="0.00" end="300.00" id="107_0_D3.0" nVehContrib="0" flow="0.00" occupancy="0.00" speed="-1.00" harmonicMeanSpeed="-1.00" length="-1.00" nVehEntered="0"/>
    <interval begin="0.00" end="300.00" id="108_0_D0.0" nVehContrib="0" flow="0.00" occupancy="0.00" speed="-1.00" harmonicMeanSpeed="-1.00" length="-1.00" nVehEntered="0"/>
    <interval begin="0.00" end="300.00" id="108_0_D0.1" nVehContrib="0" flow="0.00" occupancy="0.00" speed="-1.00" harmonicMeanSpeed="-1.00" length="-1.00" nVehEntered="0"/>
    <interval begin="0.00" end="300.00" id="108_0_D0.2" nVehContrib="0" flow="0.00" occupancy="0.00" speed="-1.00" harmonicMeanSpeed="-1.00" length="-1.00" nVehEntered="0"/>
    <interval begin="0.00" end="300.00" id="108_0_D0.3" nVehContrib="0" flow="0.00" occupancy="0.00" speed="-1.00" harmonicMeanSpeed="-1.00" length="-1.00" nVehEntered="0"/>
    <interval begin="0.00" end="300.00" id="108_0_D1.0" nVehContrib="0" flow="0.00" occupancy="0.00" speed="-1.00" harmonicMeanSpeed="-1.00" length="-1.00" nVehEntered="0"/>
    <interval begin="0.00" end="300.00" id="108_0_D1.1" nVehContrib="0" flow="0.00" occupancy="0.00" speed="-1.00" harmonicMeanSpeed="-1.00" length="-1.00" nVehEntered="0"/>
    <interval begin="0.00" end="300.00" id="108_0_D2.0" nVehContrib="0" flow="0.00" occupancy="0.00" speed="-1.00" harmonicMeanSpeed="-1.00" length="-1.00" nVehEntered="0"/>
    <interval begin="0.00" end="300.00" id="108_0_D2.1" nVehContrib="0" flow="0.00" occupancy="0.00" speed="-1.00" harmonicMeanSpeed="-1.00" length="-1.00" nVehEntered="0"/>
    <interval begin="0.00" end="300.00" id="108_0_D2.2" nVehContrib="0" flow="0.00" occupancy="0.00" speed="-1.00" harmonicMeanSpeed="-1.00" length="-1.00" nVehEntered="0"/>
    <interval begin="0.00" end="300.00" id="108_0_D2.3" nVehContrib="0" flow="0.00" occupancy="0.00" speed="-1.00" harmonicMeanSpeed="-1.00" length="-1.00" nVehEntered="0"/>
    <interval begin="0.00" end="300.00" id="108_0_D3.0" nVehContrib="0" flow="0.00" occupancy="0.00" speed="-1.00" harmonicMeanSpeed="-1.00" length="-1.00" nVehEntered="0"/>
    <interval begin="0.00" end="300.00" id="109_0_D0.0" nVehContrib="1" flow="12.00" occupancy="0.25" speed="6.74" harmonicMeanSpeed="6.74" length="5.00" nVehEntered="1"/>
    <interval begin="0.00" end="300.00" id="109_0_D0.1" nVehContrib="2" flow="24.00" occupancy="0.26" speed="13.03" harmonicMeanSpeed="13.03" length="5.00" nVehEntered="2"/>
    <interval begin="0.00" end="300.00" id="109_0_D0.2" nVehContrib="0" flow="0.00" occupancy="0.00" speed="-1.00" harmonicMeanSpeed="-1.00" length="-1.00" nVehEntered="0"/>
    <interval begin="0.00" end="300.00" id="109_0_D1.0" nVehContrib="0" flow="0.00" occupancy="0.00" speed="-1.00" harmonicMeanSpeed="-1.00" length="-1.00" nVehEntered="0"/>
    <interval begin="0.00" end="300.00" id="109_0_D1.1" nVehContrib="0" flow="0.00" occupancy="0.00" speed="-1.00" harmonicMeanSpeed="-1.00" length="-1.00" nVehEntered="0"/>
    <interval begin="0.00" end="300.00" id="109_0_D2.0" nVehContrib="0" flow="0.00" occupancy="0.00" speed="-1.00" harmonicMeanSpeed="-1.00" length="-1.00" nVehEntered="0"/>
    <interval begin="0.00" end="300.00" id="109_0_D2.1" nVehContrib="1" flow="12.00" occupancy="0.13" speed="13.05" harmonicMeanSpeed="13.05" length="5.00" nVehEntered="1"/>
    <interval begin="0.00" end="300.00" id="109_0_D2.2" nVehContrib="0" flow="0.00" occupancy="0.00" speed="-1.00" harmonicMeanSpeed="-1.00" length="-1.00" nVehEntered="0"/>
    <interval begin="0.00" end="300.00" id="109_0_D2.3" nVehContrib="0" flow="0.00" occupancy="0.00" speed="-1.00" harmonicMeanSpeed="-1.00" length="-1.00" nVehEntered="0"/>
    <interval begin="0.00" end="300.00" id="109_0_D3.0" nVehContrib="0" flow="0.00" occupancy="0.00" speed="-1.00" harmonicMeanSpeed="-1.00" length="-1.00" nVehEntered="0"/>
    <interval begin="0.00" end="300.00" id="109_0_D3.1" nVehContrib="0" flow="0.00" occupancy="0.00" speed="-1.00" harmonicMeanSpeed="-1.00" length="-1.00" nVehEntered="0"/>
    <interval begin="0.00" end="300.00" id="11_0_D0.0" nVehContrib="0" flow="0.00" occupancy="0.00" speed="-1.00" harmonicMeanSpeed="-1.00" length="-1.00" nVehEntered="0"/>
    <interval begin="0.00" end="300.00" id="11_0_D1.0" nVehContrib="0" flow="0.00" occupancy="0.00" speed="-1.00" harmonicMeanSpeed="-1.00" length="-1.00" nVehEntered="0"/>
    <interval begin="0.00" end="300.00" id="11_0_D1.1" nVehContrib="0" flow="0.00" occupancy="0.00" speed="-1.00" harmonicMeanSpeed="-1.00" length="-1.00" nVehEntered="0"/>
    <interval begin="0.00" end="300.00" id="11_0_D1.2" nVehContrib="0" flow="0.00" occupancy="0.00" speed="-1.00" harmonicMeanSpeed="-1.00" length="-1.00" nVehEntered="0"/>
    <interval begin="0.00" end="300.00" id="11_0_D2.0" nVehContrib="0" flow="0.00" occupancy="0.00" speed="-1.00" harmonicMeanSpeed="-1.00" length="-1.00" nVehEntered="0"/>
    <interval begin="0.00" end="300.00" id="11_0_D3.0" nVehContrib="0" flow="0.00" occupancy="0.00" speed="-1.00" harmonicMeanSpeed="-1.00" length="-1.00" nVehEntered="0"/>
    <interval begin="0.00" end="300.00" id="11_0_D3.1" nVehContrib="1" flow="12.00" occupancy="0.07" speed="23.28" harmonicMeanSpeed="23.28" length="5.00" nVehEntered="1"/>
    <interval begin="0.00" end="300.00" id="11_0_D3.2" nVehContrib="0" flow="0.00" occupancy="0.00" speed="-1.00" harmonicMeanSpeed="-1.00" length="-1.00" nVehEntered="0"/>
    <interval begin="0.00" end="300.00" id="11_0_D3.3" nVehContrib="0" flow="0.00" occupancy="0.00" speed="-1.00" harmonicMeanSpeed="-1.00" length="-1.00" nVehEntered="0"/>
    <interval begin="0.00" end="300.00" id="11_0_D3.4" nVehContrib="0" flow="0.00" occupancy="0.00" speed="-1.00" harmonicMeanSpeed="-1.00" length="-1.00" nVehEntered="0"/>
    <interval begin="0.00" end="300.00" id="110_0_D0.0" nVehContrib="3" flow="36.00" occupancy="0.16" speed="31.63" harmonicMeanSpeed="30.36" length="5.00" nVehEntered="3"/>
    <interval begin="0.00" end="300.00" id="110_0_D1.0" nVehContrib="0" flow="0.00" occupancy="0.00" speed="-1.00" harmonicMeanSpeed="-1.00" length="-1.00" nVehEntered="0"/>
    <interval begin="0.00" end="300.00" id="110_0_D1.1" nVehContrib="0" flow="0.00" occupancy="0.00" speed="-1.00" harmonicMeanSpeed="-1.00" length="-1.00" nVehEntered="0"/>
    <interval begin="0.00" end="300.00" id="110_0_D2.0" nVehContrib="1" flow="12.00" occupancy="0.07" speed="23.26" harmonicMeanSpeed="23.26" length="5.00" nVehEntered="1"/>
    <interval begin="0.00" end="300.00" id="110_0_D2.1" nVehContrib="0" flow="0.00" occupancy="0.00" speed="-1.00" harmonicMeanSpeed="-1.00" length="-1.00" nVehEntered="0"/>
    <interval begin="0.00" end="300.00" id="110_0_D3.0" nVehContrib="0" flow="0.00" occupancy="0.00" speed="-1.00" harmonicMeanSpeed="-1.00" length="-1.00" nVehEntered="0"/>
    <interval begin="0.00" end="300.00" id="110_0_D3.1" nVehContrib="1" flow="12.00" occupancy="0.09" speed="18.32" harmonicMeanSpeed="18.32" length="5.00" nVehEntered="1"/>
    <interval begin="0.00" end="300.00" id="111_0_D0.0" nVehContrib="2" flow="24.00" occupancy="0.26" speed="13.05" harmonicMeanSpeed="13.05" length="5.00" nVehEntered="2"/>
    <interval begin="0.00" end="300.00" id="111_0_D0.1" nVehContrib="0" flow="0.00" occupancy="0.00" speed="-1.00" harmonicMeanSpeed="-1.00" length="-1.00" nVehEntered="0"/>
    <interval begin="0.00" end="300.00" id="111_0_D0.2" nVehContrib="1" flow="12.00" occupancy="0.13" speed="13.04" harmonicMeanSpeed="13.04" length="5.00" nVehEntered="1"/>
    <interval begin="0.00" end="300.00" id="111_0_D1.0" nVehContrib="0" flow="0.00" occupancy="0.00" speed="-1.00" harmonicMeanSpeed="-1.00" length="-1.00" nVehEntered="0"/>
    <interval begin="0.00" end="300.00" id="111_0_D1.1" nVehContrib="2" flow="24.00" occupancy="0.12" speed="28.51" harmonicMeanSpeed="28.46" length="5.00" nVehEntered="2"/>
    <interval begin="0.00" end="300.00" id="111_0_D1.2" nVehContrib="0" flow="0.00" occupancy="0.00" speed="-1.00" harmonicMeanSpeed="-1.00" length="-1.00" nVehEntered="0"/>
    <interval begin="0.00" end="300.00" id="111_0_D1.3" nVehContrib="0" flow="0.00" occupancy="0.00" speed="-1.00" harmonicMeanSpeed="-1.00" length="-1.00" nVehEntered="0"/>
    <interval begin="0.00" end="300.00" id="111_0_D1.4" nVehContrib="0" flow="0.00" occupancy="0.00" speed="-1.00" harmonicMeanSpeed="-1.00" length="-1.00" nVehEntered="0"/>
    <interval begin="0.00" end="300.00" id="111_0_D2.0" nVehContrib="0" flow="0.00" occupancy="0.00" speed="-1.00" harmonicMeanSpeed="-1.00" length="-1.00" nVehEntered="0"/>
    <interval begin="0.00" end="300.00" id="111_0_D3.0" nVehContrib="1" flow="12.00" occupancy="0.06" speed="27.59" harmonicMeanSpeed="27.59" length="5.00" nVehEntered="1"/>
    <interval begin="0.00" end="300.00" id="111_0_D3.1" nVehContrib="1" flow="12.00" occupancy="0.08" speed="22.19" harmonicMeanSpeed="22.19" length="5.00" nVehEntered="1"/>
    <interval begin="0.00" end="300.00" id="111_0_D3.2" nVehContrib="1" flow="12.00" occupancy="0.07" speed="22.53" harmonicMeanSpeed="22.53" length="5.00" nVehEntered="1"/>
    <interval begin="0.00" end="300.00" id="113_0_D0.0" nVehContrib="3" flow="36.00" occupancy="0.15" speed="34.48" harmonicMeanSpeed="34.02" length="5.00" nVehEntered="3"/>
    <interval begin="0.00" end="300.00" id="113_0_D0.1" nVehContrib="0" flow="0.00" occupancy="0.00" speed="-1.00" harmonicMeanSpeed="-1.00" length="-1.00" nVehEntered="0"/>
    <interval begin="0.00" end="300.00" id="113_0_D0.2" nVehContrib="0" flow="0.00" occupancy="0.00" speed="-1.00" harmonicMeanSpeed="-1.00" length="-1.00" nVehEntered="0"/>
    <interval begin="0.00" end="300.00" id="113_0_D0.3" nVehContrib="1" flow="12.00" occupancy="0.07" speed="24.78" harmonicMeanSpeed="24.78" length="5.00" nVehEntered="1"/>
    <interval begin="0.00" end="300.00" id="113_0_D1.0" nVehContrib="1" flow="12.00" occupancy="0.13" speed="13.04" harmonicMeanSpeed="13.04" length="5.00" nVehEntered="1"/>
    <interval begin="0.00" end="300.00" id="113_0_D2.0" nVehContrib="0" flow="0.00" occupancy="0.00" speed="-1.00" harmonicMeanSpeed="-1.00" length="-1.00" nVehEntered="0"/>
    <interval begin="0.00" end="300.00" id="113_0_D2.1" nVehContrib="0" flow="0.00" occupancy="0.00" speed="-1.00" harmonicMeanSpeed="-1.00" length="-1.00" nVehEntered="0"/>
    <interval begin="0.00" end="300.00" id="113_0_D2.2" nVehContrib="0" flow="0.00" occupancy="0.00" speed="-1.00" harmonicMeanSpeed="-1.00" length="-1.00" nVehEntered="0"/>
    <interval begin="0.00" end="300.00" id="113_0_D2.3" nVehContrib="0" flow="0.00" occupancy="0.00" speed="-1.00" harmonicMeanSpeed="-1.00" length="-1.00" nVehEntered="0"/>
    <interval begin="0.00" end="300.00" id="113_0_D2.4" nVehContrib="0" flow="0.00" occupancy="0.00" speed="-1.00" harmonicMeanSpeed="-1.00" length="-1.00" nVehEntered="0"/>
    <interval begin="0.00" end="300.00" id="113_0_D3.0" nVehContrib="1" flow="12.00" occupancy="0.13" speed="13.05" harmonicMeanSpeed="13.05" length="5.00" nVehEntered="1"/>
    <interval begin="0.00" end="300.00" id="113_0_D3.1" nVehContrib="0" flow="0.00" occupancy="0.00" speed="-1.00" harmonicMeanSpeed="-1.00" length="-1.00" nVehEntered="0"/>
    <interval begin="0.00" end="300.00" id="114_0_D0.0" nVehContrib="3" flow="36.00" occupancy="0.13" speed="39.56" harmonicMeanSpeed="38.98" length="5.00" nVehEntered="3"/>
    <interval begin="0.00" end="300.00" id="114_0_D0.1" nVehContrib="1" flow="12.00" occupancy="0.05" speed="35.96" harmonicMeanSpeed="35.96" length="5.00" nVehEntered="1"/>
    <interval begin="0.00" end="300.00" id="114_0_D0.2" nVehContrib="0" flow="0.00" occupancy="0.00" speed="-1.00" harmonicMeanSpeed="-1.00" length="-1.00" nVehEntered="0"/>
    <interval begin="0.00" end="300.00" id="114_0_D0.3" nVehContrib="2" flow="24.00" occupancy="0.13" speed="26.42" harmonicMeanSpeed="26.42" length="5.00" nVehEntered="2"/>
    <interval begin="0.00" end="300.00" id="114_0_D1.0" nVehContrib="0" flow="0.00" occupancy="0.00" speed="-1.00" harmonicMeanSpeed="-1.00" length="-1.00" nVehEntered="0"/>
    <interval begin="0.00" end="300.00" id="114_0_D2.0" nVehContrib="4" flow="48.00" occupancy="0.21" speed="32.01" harmonicMeanSpeed="31.04" length="5.00" nVehEntered="4"/>
    <interval begin="0.00" end="300.00" id="114_0_D2.1" nVehContrib="2" flow="24.00" occupancy="0.09" speed="35.14" harmonicMeanSpeed="35.14" length="5.00" nVehEntered="2"/>
    <interval begin="0.00" end="300.00" id="114_0_D2.2" nVehContrib="0" flow="0.00" occupancy="0.00" speed="-1.00" harmonicMeanSpeed="-1.00" length="-1.00" nVehEntered="0"/>
    <interval begin="0.00" end="300.00" id="114_0_D3.0" nVehContrib="1" flow="12.00" occupancy="0.13" speed="13.05" harmonicMeanSpeed="13.05" length="5.00" nVehEntered="1"/>
    <interval begin="0.00" end="300.00" id="115_0_D0.0" nVehContrib="3" flow="36.00" occupancy="0.16" speed="33.09" harmonicMeanSpeed="31.78" length="5.00" nVehEntered="3"/>
    <interval begin="0.00" end="300.00" id="115_0_D0.1" nVehContrib="1" flow="12.00" occupancy="0.07" speed="24.57" harmonicMeanSpeed="24.57" length="5.00" nVehEntered="1"/>
    <interval begin="0.00" end="300.00" id="115_0_D0.2" nVehContrib="0" flow="0.00" occupancy="0.00" speed="-1.00" harmonicMeanSpeed="-1.00" length="-1.00" nVehEntered="0"/>
    <interval begin="0.00" end="300.00" id="115_0_D1.0" nVehContrib="0" flow="0.00" occupancy="0.00" speed="-1.00" harmonicMeanSpeed="-1.00" length="-1.00" nVehEntered="0"/>
    <interval begin="0.00" end="300.00" id="115_0_D2.0" nVehContrib="3" flow="36.00" occupancy="0.20" speed="26.76" harmonicMeanSpeed="25.27" length="5.00" nVehEntered="3"/>
    <interval begin="0.00" end="300.00" id="115_0_D2.1" nVehContrib="3" flow="36.00" occupancy="0.19" speed="26.89" harmonicMeanSpeed="25.66" length="5.00" nVehEntered="3"/>
    <interval begin="0.00" end="300.00" id="115_0_D2.2" nVehContrib="0" flow="0.00" occupancy="0.00" speed="-1.00" harmonicMeanSpeed="-1.00" length="-1.00" nVehEntered="0"/>
    <interval begin="0.00" end="300.00" id="115_0_D3.0" nVehContrib="0" flow="0.00" occupancy="0.00" speed="-1.00" harmonicMeanSpeed="-1.00" length="-1.00" nVehEntered="0"/>
    <interval begin="0.00" end="300.00" id="116_0_D0.0" nVehContrib="3" flow="36.00" occupancy="0.16" speed="32.51" harmonicMeanSpeed="30.77" length="5.00" nVehEntered="3"/>
    <interval begin="0.00" end="300.00" id="116_0_D0.1" nVehContrib="1" flow="12.00" occupancy="0.06" speed="28.97" harmonicMeanSpeed="28.97" length="5.00" nVehEntered="1"/>
    <interval begin="0.00" end="300.00" id="116_0_D0.2" nVehContrib="0" flow="0.00" occupancy="0.00" speed="-1.00" harmonicMeanSpeed="-1.00" length="-1.00" nVehEntered="0"/>
    <interval begin="0.00" end="300.00" id="116_0_D0.3" nVehContrib="0" flow="0.00" occupancy="0.00" speed="-1.00" harmonicMeanSpeed="-1.00" length="-1.00" nVehEntered="0"/>
    <interval begin="0.00" end="300.00" id="116_0_D1.0" nVehContrib="0" flow="0.00" occupancy="0.00" speed="-1.00" harmonicMeanSpeed="-1.00" length="-1.00" nVehEntered="0"/>
    <interval begin="0.00" end="300.00" id="116_0_D2.0" nVehContrib="0" flow="0.00" occupancy="0.00" speed="-1.00" harmonicMeanSpeed="-1.00" length="-1.00" nVehEntered="0"/>
    <interval begin="0.00" end="300.00" id="116_0_D2.1" nVehContrib="4" flow="48.00" occupancy="0.23" speed="30.06" harmonicMeanSpeed="29.01" length="5.00" nVehEntered="4"/>
    <interval begin="0.00" end="300.00" id="116_0_D2.2" nVehContrib="2" flow="24.00" occupancy="0.13" speed="24.83" harmonicMeanSpeed="24.82" length="5.00" nVehEntered="2"/>
    <interval begin="0.00" end="300.00" id="116_0_D2.3" nVehContrib="1" flow="12.00" occupancy="0.05" speed="36.42" harmonicMeanSpeed="36.42" length="5.00" nVehEntered="1"/>
    <interval begin="0.00" end="300.00" id="116_0_D2.4" nVehContrib="0" flow="0.00" occupancy="0.00" speed="-1.00" harmonicMeanSpeed="-1.00" length="-1.00" nVehEntered="0"/>
    <interval begin="0.00" end="300.00" id="117_0_D0.0" nVehContrib="1" flow="12.00" occupancy="0.05" speed="32.21" harmonicMeanSpeed="32.21" length="5.00" nVehEntered="1"/>
    <interval begin="0.00" end="300.00" id="117_0_D0.1" nVehContrib="1" flow="12.00" occupancy="0.05" speed="33.12" harmonicMeanSpeed="33.12" length="5.00" nVehEntered="1"/>
    <interval begin="0.00" end="300.00" id="117_0_D0.2" nVehContrib="1" flow="12.00" occupancy="0.05" speed="33.10" harmonicMeanSpeed="33.10" length="5.00" nVehEntered="1"/>
    <interval begin="0.00" end="300.00" id="117_0_D1.0" nVehContrib="1" flow="12.00" occupancy="0.13" speed="13.02" harmonicMeanSpeed="13.02" length="5.00" nVehEntered="1"/>
    <interval begin="0.00" end="300.00" id="117_0_D2.0" nVehContrib="3" flow="36.00" occupancy="0.19" speed="26.41" harmonicMeanSpeed="26.10" length="5.00" nVehEntered="3"/>
    <interval begin="0.00" end="300.00" id="117_0_D2.1" nVehContrib="1" flow="12.00" occupancy="0.07" speed="22.50" harmonicMeanSpeed="22.50" length="5.00" nVehEntered="1"/>